# vtk DataFile Version 2.0
Structured example
ASCII
DATASET STRUCTURED_POINTS
DIMENSIONS 3 4 5
ORIGIN 0 0 0
SPACING 1 2 3

POINT_DATA 60
SCALARS volume_scalars char 1
LOOKUP_TABLE default
0 0 0 0 0 0 0 0 0 0 0 0
0 5 10 15 20 25 25 20 15 10 5 0
0 10 20 30 40 50 50 40 30 20 10 0
0 5 10 15 20 25 25 20 15 10 5 0
0 0 0 0 0 0 0 0 0 0 0 0
